# vtk DataFile Version 2.0
Manning
ASCII
DATASET UNSTRUCTURED_GRID
POINTS 767 double
0.0 6.0 -4.0
4.5 6.0 -4.0
12.5 6.0 -4.0
28.5 6.0 -4.0
28.5 26.0 -4.0
12.5 26.0 -4.0
4.5 26.0 -4.0
0.0 26.0 -4.0
8.5 9.5 -4.0
8.5 13.5 -4.0
8.5 18.5 -4.0
8.5 22.5 -4.0
0.9 6.0 -4.0
1.8 6.0 -4.0
2.7 6.0 -4.0
3.6 6.0 -4.0
13.5 6.0 -4.0
14.5 6.0 -4.0
15.5 6.0 -4.0
16.5 6.0 -4.0
17.5 6.0 -4.0
18.5 6.0 -4.0
19.5 6.0 -4.0
20.5 6.0 -4.0
21.5 6.0 -4.0
22.5 6.0 -4.0
23.5 6.0 -4.0
24.5 6.0 -4.0
25.5 6.0 -4.0
26.5 6.0 -4.0
27.5 6.0 -4.0
28.5 7.0 -4.0
28.5 8.0 -4.0
28.5 9.0 -4.0
28.5 10.0 -4.0
28.5 11.0 -4.0
28.5 12.0 -4.0
28.5 13.0 -4.0
28.5 14.0 -4.0
28.5 15.0 -4.0
28.5 16.0 -4.0
28.5 17.0 -4.0
28.5 18.0 -4.0
28.5 19.0 -4.0
28.5 20.0 -4.0
28.5 21.0 -4.0
28.5 22.0 -4.0
28.5 23.0 -4.0
28.5 24.0 -4.0
28.5 25.0 -4.0
27.5 26.0 -4.0
26.5 26.0 -4.0
25.5 26.0 -4.0
24.5 26.0 -4.0
23.5 26.0 -4.0
22.5 26.0 -4.0
21.5 26.0 -4.0
20.5 26.0 -4.0
19.5 26.0 -4.0
18.5 26.0 -4.0
17.5 26.0 -4.0
16.5 26.0 -4.0
15.5 26.0 -4.0
14.5 26.0 -4.0
13.5 26.0 -4.0
3.6 26.0 -4.0
2.7 26.0 -4.0
1.8 26.0 -4.0
0.9 26.0 -4.0
0.0 25.0 -4.0
0.0 24.0 -4.0
0.0 23.0 -4.0
0.0 22.0 -4.0
0.0 21.0 -4.0
0.0 20.0 -4.0
0.0 19.0 -4.0
0.0 18.0 -4.0
0.0 17.0 -4.0
0.0 16.0 -4.0
0.0 15.0 -4.0
0.0 14.0 -4.0
0.0 13.0 -4.0
0.0 12.0 -4.0
0.0 11.0 -4.0
0.0 10.0 -4.0
0.0 9.0 -4.0
0.0 8.0 -4.0
0.0 7.0 -4.0
5.31587 6.47003 -4.0
6.18604 6.82976 -4.0
7.09565 7.07303 -4.0
8.02921 7.19572 -4.0
8.97079 7.19572 -4.0
9.90435 7.07303 -4.0
10.81396 6.82976 -4.0
11.68413 6.47003 -4.0
11.68413 25.52997 -4.0
10.81396 25.17024 -4.0
9.90435 24.92697 -4.0
8.97079 24.80428 -4.0
8.02921 24.80428 -4.0
7.09565 24.92697 -4.0
6.18604 25.17024 -4.0
5.31587 25.52997 -4.0
9.36777 22.30194 -4.0
10.06366 21.74698 -4.0
10.44986 20.94504 -4.0
10.44986 20.05496 -4.0
10.06366 19.25302 -4.0
9.36777 18.69806 -4.0
7.63223 18.69806 -4.0
6.93634 19.25302 -4.0
6.55014 20.05496 -4.0
6.55014 20.94504 -4.0
6.93634 21.74698 -4.0
7.63223 22.30194 -4.0
9.36777 13.30194 -4.0
10.06366 12.74698 -4.0
10.44986 11.94504 -4.0
10.44986 11.05496 -4.0
10.06366 10.25302 -4.0
9.36777 9.69806 -4.0
7.63223 9.69806 -4.0
6.93634 10.25302 -4.0
6.55014 11.05496 -4.0
6.55014 11.94504 -4.0
6.93634 12.74698 -4.0
7.63223 13.30194 -4.0
27.63065 16.50501 -4.0
10.95181 19.29147 -4.0
18.98682 6.85843 -4.0
18.97275 25.13913 -4.0
10.9631 12.67622 -4.0
27.63815 12.50881 -4.0
21.9474 25.15592 -4.0
27.57305 19.6175 -4.0
22.01116 6.85512 -4.0
15.97062 25.12987 -4.0
16.07255 6.80834 -4.0
6.80368 13.62712 -4.0
0.86983 16.4947 -4.0
6.02905 19.28581 -4.0
0.99132 22.50136 -4.0
0.83809 9.50514 -4.0
0.8411 13.49541 -4.0
25.03269 6.9554 -4.0
27.63397 22.5 -4.0
5.78313 11.65982 -4.0
10.95126 10.31954 -4.0
10.95796 21.69266 -4.0
6.06851 21.69068 -4.0
0.86491 19.50917 -4.0
9.10541 17.84752 -4.0
25.00087 25.03766 -4.0
27.63394 9.50049 -4.0
5.43603 7.39812 -4.0
2.99177 25.26643 -4.0
3.13743 6.84156 -4.0
0.86336 11.49437 -4.0
14.06649 25.1312 -4.0
14.0653 6.9464 -4.0
27.63344 14.50257 -4.0
9.07567 14.14055 -4.0
5.44212 24.71786 -4.0
11.49488 24.68186 -4.0
11.63664 7.52613 -4.0
6.80227 9.37112 -4.0
7.8862 17.86981 -4.0
8.50086 17.05883 -4.0
9.4349 16.99184 -4.0
7.59091 16.98587 -4.0
8.08786 16.27738 -4.0
7.22693 16.17872 -4.0
6.70268 16.87332 -4.0
6.34096 16.07324 -4.0
5.80966 16.78767 -4.0
5.44663 15.95874 -4.0
4.8995 16.69751 -4.0
4.53182 15.84356 -4.0
3.98137 16.59282 -4.0
3.60912 15.73737 -4.0
4.16484 14.9841 -4.0
4.35338 17.44786 -4.0
3.42696 17.34464 -4.0
3.80552 18.20178 -4.0
3.23719 14.87796 -4.0
3.79212 14.16747 -4.0
2.89809 18.0892 -4.0
3.25601 18.94912 -4.0
11.33498 20.15124 -4.0
11.84955 19.35707 -4.0
12.28445 20.17727 -4.0
12.76338 19.4146 -4.0
13.15803 20.26129 -4.0
13.66851 19.50654 -4.0
13.21153 18.57748 -4.0
14.14362 18.69249 -4.0
14.58204 19.58148 -4.0
15.09667 18.80811 -4.0
14.62825 17.89756 -4.0
15.6094 18.03352 -4.0
15.16818 17.16127 -4.0
16.13264 17.26759 -4.0
15.72588 16.40258 -4.0
16.66446 16.46706 -4.0
17.0726 17.34109 -4.0
17.60098 16.57527 -4.0
18.01364 17.41991 -4.0
18.54402 16.6474 -4.0
18.96109 17.48891 -4.0
17.23727 15.71073 -4.0
19.49342 16.69773 -4.0
19.91256 17.55568 -4.0
20.44808 16.76278 -4.0
20.02685 15.90063 -4.0
20.8696 17.62364 -4.0
15.50714 19.65291 -4.0
20.98489 15.96704 -4.0
20.56072 15.09955 -4.0
20.32914 18.42035 -4.0
21.29224 18.48912 -4.0
21.52675 15.16746 -4.0
21.09879 14.29512 -4.0
20.74741 19.29121 -4.0
21.71484 19.36063 -4.0
22.06854 14.36211 -4.0
21.64052 13.48871 -4.0
20.66905 13.42269 -4.0
21.21126 12.61432 -4.0
20.23672 12.5489 -4.0
22.18453 12.68263 -4.0
22.25941 18.55583 -4.0
14.78498 16.35787 -4.0
22.68446 19.43158 -4.0
21.16989 20.16335 -4.0
20.2013 20.09343 -4.0
20.78103 11.73846 -4.0
19.80423 11.67306 -4.0
22.49627 15.23741 -4.0
23.23082 18.62312 -4.0
20.62401 20.96717 -4.0
19.65509 20.89625 -4.0
23.65837 19.50294 -4.0
20.34993 10.86033 -4.0
19.37299 10.79642 -4.0
18.82889 11.60805 -4.0
18.39832 10.73446 -4.0
17.85808 11.53455 -4.0
17.42672 10.67247 -4.0
16.89045 11.46592 -4.0
16.46204 10.61133 -4.0
15.92842 11.4074 -4.0
15.50391 10.5528 -4.0
14.9722 11.34762 -4.0
15.39456 12.19763 -4.0
21.59268 21.03875 -4.0
23.04123 14.42844 -4.0
23.46997 15.30748 -4.0
21.32858 10.92613 -4.0
14.98239 20.4227 -4.0
15.91869 20.49651 -4.0
14.55253 10.49108 -4.0
24.20715 18.69025 -4.0
15.38869 21.27361 -4.0
16.33141 21.34719 -4.0
14.45044 12.13303 -4.0
24.01759 14.49444 -4.0
11.43799 18.54307 -4.0
18.18546 12.56298 -4.0
20.07754 21.7707 -4.0
14.87537 12.98435 -4.0
13.97449 12.94427 -4.0
24.44191 15.37235 -4.0
20.89573 10.04335 -4.0
21.87905 10.10987 -4.0
24.63716 19.57237 -4.0
24.08553 20.38601 -4.0
13.50195 12.13704 -4.0
16.96443 9.86275 -4.0
25.06827 20.45742 -4.0
24.51393 21.27479 -4.0
15.88287 13.18254 -4.0
19.23388 20.02434 -4.0
19.59993 15.0382 -4.0
16.43514 19.72424 -4.0
19.10723 21.69962 -4.0
15.08043 9.69831 -4.0
14.16684 9.62697 -4.0
15.79405 22.13194 -4.0
14.8559 22.04894 -4.0
18.95744 9.96663 -4.0
25.18697 18.75725 -4.0
16.74691 22.20638 -4.0
14.35558 13.76145 -4.0
13.41393 13.69107 -4.0
24.9891 14.55534 -4.0
24.56519 13.67723 -4.0
19.53682 22.58322 -4.0
20.50605 22.6508 -4.0
22.80167 17.74952 -4.0
12.60601 21.11889 -4.0
24.75443 17.88213 -4.0
15.25593 22.91968 -4.0
14.30859 22.83657 -4.0
25.40147 15.45926 -4.0
21.43111 9.22969 -4.0
22.41404 9.30772 -4.0
22.8639 10.17717 -4.0
23.41338 9.3697 -4.0
23.85221 10.2489 -4.0
24.40318 9.46106 -4.0
24.84196 10.32113 -4.0
24.28853 11.13978 -4.0
25.27853 11.20771 -4.0
25.55013 13.79095 -4.0
25.50071 21.34592 -4.0
24.94536 22.16511 -4.0
23.95772 22.09248 -4.0
9.94811 13.91316 -4.0
9.71136 14.80731 -4.0
10.52832 14.53965 -4.0
5.77497 20.69093 -4.0
5.11003 21.2952 -4.0
5.26852 22.18754 -4.0
4.42035 21.82717 -4.0
4.52935 22.74838 -4.0
3.69184 22.4069 -4.0
3.5441 21.57951 -4.0
6.05589 12.69994 -4.0
5.15214 12.26413 -4.0
4.86326 11.38531 -4.0
4.26643 12.05137 -4.0
4.00332 11.18112 -4.0
4.58344 10.49117 -4.0
3.70994 10.29879 -4.0
3.37468 11.77518 -4.0
4.27847 9.61203 -4.0
3.35603 9.4291 -4.0
10.52453 22.48038 -4.0
11.51138 22.46522 -4.0
10.19632 9.37288 -4.0
11.14023 9.30572 -4.0
11.83491 10.02028 -4.0
11.98842 9.15646 -4.0
13.85368 14.5548 -4.0
12.88577 14.42007 -4.0
13.33647 15.31665 -4.0
25.70002 17.9633 -4.0
15.27581 15.51436 -4.0
5.82749 13.64346 -4.0
12.44669 15.19593 -4.0
12.80816 16.04535 -4.0
11.81216 15.88804 -4.0
7.88334 14.12304 -4.0
11.36845 11.86372 -4.0
25.36344 9.49478 -4.0
6.77436 22.62183 -4.0
4.84841 20.48721 -4.0
24.38905 22.98481 -4.0
23.40052 22.91205 -4.0
25.47439 22.98574 -4.0
3.98698 8.7159 -4.0
0.85631 7.50881 -4.0
0.77184 24.51612 -4.0
2.71306 10.24998 -4.0
10.26165 15.44413 -4.0
12.2877 16.80062 -4.0
11.37993 16.7389 -4.0
14.66282 8.84017 -4.0
3.0476 8.53872 -4.0
26.90805 6.90656 -4.0
27.65647 24.46119 -4.0
2.82287 14.03559 -4.0
2.38951 14.70709 -4.0
3.78746 23.31471 -4.0
2.94495 22.9705 -4.0
13.50028 10.38053 -4.0
19.71726 13.34415 -4.0
18.42312 18.27681 -4.0
20.47861 9.1745 -4.0
11.8548 12.61509 -4.0
15.5821 8.9144 -4.0
24.07544 8.50491 -4.0
17.28455 21.41305 -4.0
13.19766 16.86372 -4.0
19.96113 23.45965 -4.0
19.00681 23.42451 -4.0
23.88835 16.17286 -4.0
9.86167 23.16566 -4.0
20.93734 23.51625 -4.0
21.47863 22.72027 -4.0
23.83502 23.7825 -4.0
4.94003 8.9057 -4.0
13.75156 8.86968 -4.0
10.02708 17.64577 -4.0
26.05487 20.52581 -4.0
6.22032 17.75586 -4.0
6.98395 14.58829 -4.0
20.99421 8.36555 -4.0
7.36683 8.84237 -4.0
2.54643 17.21419 -4.0
1.9222 18.00314 -4.0
7.50157 23.18717 -4.0
9.47344 8.91553 -4.0
6.14649 9.99921 -4.0
4.73012 18.30065 -4.0
20.00167 8.40364 -4.0
6.66216 8.48167 -4.0
6.8091 23.48804 -4.0
10.40257 8.59546 -4.0
11.50445 13.44689 -4.0
17.68345 22.32248 -4.0
17.16195 23.07551 -4.0
21.91339 23.59583 -4.0
13.54168 21.11766 -4.0
13.02941 21.9398 -4.0
22.98188 22.00644 -4.0
24.70952 12.02245 -4.0
25.68479 12.07758 -4.0
26.12303 11.34426 -4.0
23.71966 11.94907 -4.0
20.43952 24.30918 -4.0
14.71487 23.68403 -4.0
13.73394 23.6054 -4.0
8.5 14.92374 -4.0
25.28722 17.11833 -4.0
8.44273 23.48571 -4.0
9.1796 15.63457 -4.0
26.12938 18.84612 -4.0
26.68068 18.01593 -4.0
10.74448 23.40058 -4.0
26.47992 21.39306 -4.0
12.28344 11.7181 -4.0
11.78077 23.37838 -4.0
5.35136 23.04295 -4.0
4.48673 12.92937 -4.0
15.18184 8.06555 -4.0
8.52921 7.9157 -4.0
15.70062 23.78867 -4.0
3.05892 23.83409 -4.0
2.19544 23.50171 -4.0
3.98024 24.30886 -4.0
20.49477 7.61127 -4.0
16.11511 8.23465 -4.0
6.00446 15.20516 -4.0
2.31913 24.4751 -4.0
12.72451 17.66775 -4.0
3.52855 13.30272 -4.0
2.47995 13.1937 -4.0
4.65714 14.33128 -4.0
4.58563 7.06021 -4.0
3.72832 7.6381 -4.0
2.11059 22.50445 -4.0
12.37634 25.00546 -4.0
12.45191 7.02735 -4.0
12.49944 7.7596 -4.0
14.82501 14.65573 -4.0
27.00908 20.53931 -4.0
10.33964 16.84949 -4.0
13.66662 17.77207 -4.0
12.01333 14.33433 -4.0
12.52413 13.44045 -4.0
14.36857 15.51237 -4.0
15.76928 14.73276 -4.0
11.32882 8.37208 -4.0
12.68445 9.78939 -4.0
12.5118 10.67715 -4.0
12.39352 22.68361 -4.0
12.77312 23.50214 -4.0
4.57588 25.06046 -4.0
11.06791 15.20382 -4.0
6.99719 18.3133 -4.0
15.12274 24.58851 -4.0
10.86634 17.51767 -4.0
2.65621 7.62434 -4.0
2.11798 8.35318 -4.0
[...]
CELL_DATA 1408
SCALARS Manning double
LOOKUP_TABLE default
0.03
0.03
0.03
0.035
0.035
0.035
0.035
0.035
0.024
0.035
0.02
0.035
0.024
0.035
0.035
0.024
0.035
0.035
0.035
0.035
0.035
0.024
0.035
0.035
0.024
0.035
0.035
0.035
0.035
0.035
0.024
0.024
0.035
0.035
0.035
0.035
0.035
0.03
0.035
0.035
0.035
0.035
0.035
0.035
0.035
0.035
0.035
0.035
0.024
0.03
0.035
0.035
0.035
0.035
0.035
0.035
0.035
0.03
0.035
0.035
0.024
0.035
0.035
0.035
0.035
0.035
0.035
0.035
0.03
0.024
0.035
0.035
0.03
0.035
0.035
0.035
0.035
0.035
0.035
0.02
0.02
0.03
0.024
0.035
0.02
0.02
0.02
0.02
0.024
0.02
0.02
0.035
0.03
0.03
0.035
0.035
0.035
0.035
0.035
0.035
0.03
0.024
0.02
0.02
0.02
0.03
0.035
0.035
0.02
0.024
0.02
0.03
0.035
0.02
0.03
0.035
0.02
0.024
0.035
0.024
0.02
0.035
0.035
0.035
0.02
0.035
0.03
0.03
0.02
0.02
0.02
0.035
0.035
0.024
0.035
0.035
0.02
0.024
0.035
0.035
0.024
0.024
0.03
0.024
0.024
0.035
0.024
0.024
0.035
0.035
0.024
0.035
0.035
0.03
0.024
0.03
0.024
0.035
0.035
0.035
0.024
0.035
0.03
0.024
0.02
0.035
0.024
0.024
0.024
0.035
0.024
0.02
0.03
0.02
0.024
0.035
0.024
0.035
0.02
0.035
0.02
0.024
0.035
0.035
0.035
0.035
0.035
0.035
0.035
0.03
0.024
0.024
0.035
0.035
0.035
0.035
0.03
0.035
0.035
0.024
0.035
0.035
0.035
0.035
0.024
0.035
0.02
0.035
0.035
0.035
0.035
0.03
0.035
0.024
0.03
0.03
0.035
0.035
0.024
0.035
0.03
0.02
0.035
0.035
0.035
0.035
0.035
0.035
0.035
0.035
0.035
0.035
0.03
0.035
0.035
0.035
0.035
0.035
0.035
0.024
0.024
0.035
0.035
0.02
0.02
0.035
0.03
0.02
0.03
0.02
0.03
0.035
0.035
0.035
0.035
0.035
0.03
0.03
0.02
0.02
0.02
0.024
0.024
0.035
0.035
0.035
0.035
0.024
0.035
0.035
0.02
0.035
0.02
0.03
0.035
0.035
0.02
0.035
0.035
0.03
0.024
0.02
0.03
0.024
0.035
0.024
0.02
0.024
0.035
0.024
0.035
0.02
0.03
0.024
0.024
0.024
0.024
0.035
0.035
0.035
0.035
0.035
0.02
0.02
0.02
0.02
0.024
0.02
0.024
0.035
0.024
0.02
0.03
0.02
0.02
0.02
0.035
0.035
0.03
0.024
0.024
0.024
0.024
0.035
0.024
0.024
0.024
0.02
0.035
0.035
0.024
0.024
0.035
0.024
0.035
0.03
0.024
0.024
0.02
0.035
0.035
0.035
0.03
0.024
0.035
0.035
0.024
0.02
0.024
0.02
0.02
0.02
0.02
0.02
0.035
0.02
0.024
0.024
0.02
0.02
0.024
0.024
0.02
0.035
0.035
0.035
0.024
0.035
0.02
0.02
0.035
0.02
0.035
0.024
0.02
0.035
0.03
0.02
0.024
0.024
0.024
0.024
0.02
0.02
0.024
0.02
0.03
0.03
0.03
0.024
0.024
0.02
0.024
0.024
0.024
0.02
0.02
0.035
0.035
0.02
0.024
0.03
0.03
0.02
0.02
0.02
0.02
0.02
0.02
0.035
0.02
0.02
0.03
0.035
0.035
0.02
0.02
0.02
0.024
0.02
0.024
0.02
0.024
0.02
0.035
0.035
0.035
0.035
0.03
0.02
0.03
0.02
0.02
0.035
0.03
0.035
0.024
0.02
0.02
0.02
0.02
0.024
0.03
0.024
0.02
0.024
0.02
0.024
0.02
0.024
0.035
0.02
0.02
0.03
0.035
0.035
0.035
0.02
0.02
0.03
0.03
0.035
0.02
0.035
0.02
0.035
0.02
0.035
0.03
0.02
0.03
0.03
0.03
0.03
0.03
0.03
0.035
0.02
0.02
0.03
0.03
0.035
0.024
0.03
0.035
0.03
0.02
0.02
0.02
0.03
0.03
0.03
0.02
0.03
0.03
0.02
0.03
0.03
0.02
0.03
0.02
0.03
0.02
0.02
0.03
0.03
0.035
0.03
0.02
0.03
0.03
0.03
0.03
0.03
0.03
0.02
0.03
0.03
0.02
0.03
0.03
0.03
0.03
0.03
0.03
0.03
0.02
0.03
0.03
0.02
0.03
0.03
0.03
0.03
0.03
0.03
0.03
0.03
0.03
0.03
0.035
0.03
0.03
0.02
0.03
0.03
0.035
0.03
0.03
0.03
0.03
0.03
0.03
0.03
0.03
0.03
0.03
0.03
0.03
0.03
0.02
0.03
0.03
0.03
0.035
0.03
0.03
0.024
0.03
0.035
0.03
0.03
0.035
0.03
0.035
0.035
0.03
0.02
0.035
0.03
0.035
0.02
0.03
0.03
0.024
0.03
0.02
0.03
0.02
0.024
0.03
0.03
0.035
0.03
0.035
0.03
0.03
0.03
0.03
0.035
0.02
0.02
0.035
0.03
0.03
0.03
0.03
0.035
0.035
0.02
0.024
0.03
0.024
0.03
0.02
0.024
0.03
0.03
0.035
0.024
0.02
0.024
0.035
0.03
0.024
0.03
0.02
0.03
0.03
0.03
0.03
0.03
0.03
0.03
0.02
0.03
0.035
0.03
0.03
0.02
0.024
0.024
0.03
0.03
0.035
0.03
0.024
0.03
0.03
0.03
0.03
0.035
0.03
0.03
0.02
0.03
0.03
0.03
0.035
0.02
0.03
0.02
0.03
0.03
0.03
0.02
0.03
0.03
0.02
0.03
0.03
0.035
0.024
0.03
0.03
0.03
0.02
0.02
0.03
0.02
0.03
0.03
0.035
0.035
0.024
0.03
0.035
0.035
0.03
0.03
0.03
0.03
0.035
0.035
0.035
0.03
0.03
0.03
0.035
0.03
0.03
0.03
0.03
0.03
0.02
0.03
0.024
0.03
0.03
0.035
0.03
0.03
0.02
0.03
0.02
0.03
0.02
0.03
0.03
0.03
0.035
0.035
0.02
0.03
0.03
0.024
0.03
0.02
0.03
0.02
0.02
0.03
0.02
0.03
0.024
0.03
0.035
0.03
0.03
0.02
0.03
0.02
0.03
0.02
0.03
0.03
0.02
0.03
0.03
0.03
0.035
0.035
0.02
0.035
0.02
0.02
0.03
0.03
0.03
0.03
0.03
0.03
0.02
0.024
0.03
0.035
0.035
0.024
0.035
0.03
0.024
0.03
0.02
0.03
0.03
0.03
0.03
0.02
0.035
0.03
0.035
0.024
0.03
0.02
0.02
0.02
0.035
0.02
0.02
0.035
0.03
0.02
0.03
0.02
0.03
0.03
0.035
0.02
0.02
0.02
0.035
0.03
0.02
0.02
0.02
0.035
0.03
0.02
0.03
0.03
0.03
0.02
0.03
0.02
0.03
0.035
0.035
0.035
0.035
0.035
0.03
0.035
0.03
0.02
0.03
0.02
0.035
0.02
0.03
0.03
0.03
0.02
0.02
0.035
0.02
0.035
0.02
0.024
0.03
0.035
0.024
0.024
0.035
0.035
0.024
0.035
0.03
0.02
0.02
0.035
0.02
0.03
0.035
0.024
0.02
0.02
0.02
0.024
0.035
0.035
0.035
0.03
0.02
0.02
0.02
0.035
0.035
0.035
0.02
0.024
0.024
0.035
0.035
0.035
0.03
0.02
0.035
0.024
0.02
0.03
0.03
0.024
0.035
0.03
0.024
0.024
0.035
0.024
0.024
0.03
0.024
0.024
0.02
0.02
0.035
0.03
0.02
0.035
0.024
0.03
0.035
0.035
0.03
0.024
0.03
0.035
0.02
0.02
0.024
0.02
0.02
0.035
0.02
0.035
0.035
0.02
0.035
0.024
0.035
0.035
0.024
0.035
0.035
0.024
0.02
0.02
0.035
0.035
0.02
0.02
0.024
0.024
0.02
0.024
0.02
0.02
0.024
0.03
0.02
0.035
0.03
0.035
0.035
0.035
0.035
0.03
0.035
0.035
0.035
0.024
0.03
0.03
0.03
0.03
0.03
0.03
0.02
0.02
0.03
0.035
0.024
0.035
0.02
0.03
0.03
0.035
0.035
0.024
0.035
0.035
0.03
0.02
0.03
0.024
0.024
0.03
0.03
0.03
0.03
0.02
0.03
0.024
0.024
0.03
0.03
0.02
0.024
0.02
0.03
0.024
0.035
0.03
0.035
0.03
0.03
0.03
0.035
0.035
0.024
0.03
0.03
0.03
0.03
0.024
0.03
0.02
0.03
0.035
0.03
0.024
0.02
0.035
0.035
0.035
0.03
0.035
0.035
0.02
0.035
0.024
0.03
0.035
0.03
0.03
0.03
0.03
0.035
0.02
0.03
0.02
0.02
0.035
0.035
0.02
0.02
0.03
0.024
0.03
0.02
0.03
0.035
0.035
0.03
0.02
0.03
0.03
0.03
0.035
0.02
0.02
0.024
0.03
0.035
0.03
0.03
0.035
0.03
0.03
0.035
0.02
0.03
0.035
0.035
0.02
0.02
0.024
0.035
0.03
0.02
0.02
0.03
0.03
0.024
0.024
0.035
0.035
0.02
0.035
0.035
0.02
0.035
0.02
0.035
0.024
0.02
0.03
0.024
0.02
0.02
0.03
0.035
0.035
0.024
0.035
0.035
0.035
0.035
0.03
0.035
0.02
0.02
0.03
0.02
0.03
0.035
0.03
0.02
0.03
0.02
0.03
0.02
0.035
0.035
0.035
0.03
0.024
0.035
0.03
0.02
0.035
0.02
0.035
0.024
0.024
0.035
0.03
0.03
0.03
0.035
0.03
0.024
0.024
0.035
0.024
0.035
0.02
0.03
0.03
0.024
0.035
0.024
0.035
0.02
0.03
0.035
0.03
0.02
0.035
0.035
0.03
0.03
0.035
0.024
0.024
0.03
0.03
0.03
0.03
0.03
0.03
0.024
0.035
0.03
0.03
0.02
0.02
0.035
0.024
0.03
0.024
0.03
0.035
0.024
0.035
0.03
0.035
0.035
0.024
0.02
0.02
0.035
0.035
0.03
0.024
0.02
0.024
0.024
0.035
0.024
0.02
0.024
0.024
0.035
0.02
0.03
0.02
0.035
0.035
0.03
0.02
0.03
0.024
0.035
0.03
0.035
0.035
0.03
0.02
0.03
0.035
0.024
0.02
0.035
0.02
0.024
0.035
0.024
0.03
0.035
0.02
0.03
0.03
0.035
0.035
0.024
0.024
0.02
0.024
0.02
0.024
0.035
0.035
0.02
0.024
0.03
0.035
0.02
0.024
0.02
0.02
0.024
0.03
0.035
0.03
0.03
0.03
0.035
0.035
0.035
0.024
0.035
0.035
0.03
0.03
0.035
0.03
0.03
0.035
0.03
0.024
0.035
0.02
0.02
0.02
0.024
0.03
0.035
0.02
0.02
0.035
0.035
0.024
0.03
0.024
0.024
0.024
0.035
0.024
0.035
0.02
0.03
0.035
0.024
0.035
0.024
0.02
0.024
0.03
0.03
0.03
0.03
0.03
0.035
0.03
0.02
0.03
0.024
0.024
0.035
0.02
0.02
0.03
0.03
0.035
0.02
0.02
0.024
0.03
0.024
0.035
0.03
0.024
0.024
0.035
0.035
0.03
0.035
0.024
0.035
0.03
0.024
0.024
0.02
0.03
0.02
0.035
0.035
0.035
0.035
0.02
0.024
0.035
0.02
0.03
0.02
0.03
0.024
0.024
0.035
0.02
0.024
0.03
0.03
0.03
0.03
0.03
0.035
0.03
0.024
0.03
0.035
0.02
0.024
0.024
0.024
0.035
0.03
0.02
0.024
0.035
0.03
0.024
0.035
0.024
0.035
0.02
0.02
0.024
0.02
0.03
0.02
0.02
0.02
0.035
0.024
0.024
0.035
0.02
0.035
0.024
0.024
0.024
0.035
0.024
0.024
0.024
0.024
0.035
0.024
0.03
0.035
0.035
0.035
0.03
0.024
0.035
0.024
0.024
0.024
0.024
0.035
0.035
0.035
0.035
0.024
0.035
0.024
0.024
