# vtk DataFile Version 2.0
Manning
ASCII
DATASET UNSTRUCTURED_GRID
POINTS 489 double
0.0 0.0 -0.2
0.25 0.0 -0.20025
0.5 0.0 -0.2005
0.75 0.0 -0.20075
1.0 0.0 -0.201
1.25 0.0 -0.20125
1.5 0.0 -0.2015
1.75 0.0 -0.20175
2.0 0.0 -0.202
2.25 0.0 -0.20225
2.5 0.0 -0.2025
2.75 0.0 -0.20275
3.0 0.0 -0.203
3.25 0.0 -0.20325
3.5 0.0 -0.2035
3.75 0.0 -0.20375
4.0 0.0 -0.204
4.25 0.0 -0.20425
4.5 0.0 -0.2045
4.75 0.0 -0.20475
5.0 0.0 -0.205
5.25 0.0 -0.20525
5.5 0.0 -0.2055
5.75 0.0 -0.20575
6.0 0.0 -0.206
6.25 0.0 -0.20625
6.5 0.0 -0.2065
6.75 0.0 -0.20675
7.0 0.0 -0.207
7.25 0.0 -0.20725
7.5 0.0 -0.2075
7.75 0.0 -0.20775
8.0 0.0 -0.208
8.25 0.0 -0.20825
8.5 0.0 -0.2085
8.75 0.0 -0.20875
9.0 0.0 -0.209
9.25 0.0 -0.20925
9.5 0.0 -0.2095
9.75 0.0 -0.20975
10.0 0.0 -0.21
10.25 0.0 -0.21025
10.5 0.0 -0.2105
10.75 0.0 -0.21075
11.0 0.0 -0.211
11.25 0.0 -0.21125
11.5 0.0 -0.2115
11.75 0.0 -0.21175
12.0 0.0 -0.212
12.25 0.0 -0.21225
12.5 0.0 -0.2125
12.75 0.0 -0.21275
13.0 0.0 -0.213
13.25 0.0 -0.21325
13.5 0.0 -0.2135
13.75 0.0 -0.21375
14.0 0.0 -0.214
14.25 0.0 -0.21425
14.5 0.0 -0.2145
14.75 0.0 -0.21475
15.0 0.0 -0.215
15.25 0.0 -0.21525
15.5 0.0 -0.2155
15.75 0.0 -0.21575
16.0 0.0 -0.216
0.0 0.25 -0.2
0.25 0.25 -0.20025
0.5 0.25 -0.2005
0.75 0.25 -0.20075
1.0 0.25 -0.201
1.25 0.25 -0.20125
1.5 0.25 -0.2015
1.75 0.25 -0.20175
2.0 0.25 -0.202
2.25 0.25 -0.20225
2.5 0.25 -0.2025
2.75 0.25 -0.20275
3.0 0.25 -0.203
3.25 0.25 -0.20325
3.5 0.25 -0.2035
3.75 0.25 -0.20375
4.0 0.25 -0.204
4.25 0.25 -0.20425
4.5 0.25 -0.2045
4.75 0.25 -0.20475
5.0 0.25 -0.205
5.25 0.25 -0.20525
5.5 0.25 -0.2055
5.75 0.25 -0.20575
6.0 0.25 -0.206
6.25 0.25 -0.20625
6.5 0.25 -0.2065
6.75 0.25 -0.20675
7.0 0.25 -0.207
7.25 0.25 -0.20725
7.5 0.25 -0.2075
7.75 0.25 -0.20775
8.0 0.25 -0.208
8.25 0.25 -0.20825
8.5 0.25 -0.2085
8.75 0.25 -0.20875
9.0 0.25 -0.209
9.25 0.25 -0.20925
9.5 0.25 -0.2095
9.75 0.25 -0.20975
10.0 0.25 -0.21
10.25 0.25 -0.21025
10.5 0.25 -0.2105
10.75 0.25 -0.21075
11.0 0.25 -0.211
11.25 0.25 -0.21125
11.5 0.25 -0.2115
11.75 0.25 -0.21175
12.0 0.25 -0.212
12.25 0.25 -0.21225
12.5 0.25 -0.2125
12.75 0.25 -0.21275
13.0 0.25 -0.213
13.25 0.25 -0.21325
13.5 0.25 -0.2135
13.75 0.25 -0.21375
14.0 0.25 -0.214
14.25 0.25 -0.21425
14.5 0.25 -0.2145
14.75 0.25 -0.21475
15.0 0.25 -0.215
15.25 0.25 -0.21525
15.5 0.25 -0.2155
15.75 0.25 -0.21575
16.0 0.25 -0.216
0.0 0.5 -0.2
0.25 0.5 -0.20025
0.5 0.5 -0.2005
0.75 0.5 -0.20075
1.0 0.5 -0.201
1.25 0.5 -0.20125
1.5 0.5 -0.2015
1.75 0.5 -0.20175
2.0 0.5 -0.202
2.25 0.5 -0.20225
2.5 0.5 -0.2025
2.75 0.5 -0.20275
3.0 0.5 -0.203
3.25 0.5 -0.20325
3.5 0.5 -0.2035
3.75 0.5 -0.20375
4.0 0.5 -0.204
4.25 0.5 -0.20425
4.5 0.5 -0.2045
4.75 0.5 -0.20475
5.0 0.5 -0.205
5.25 0.5 -0.20525
5.5 0.5 -0.2055
5.75 0.5 -0.20575
6.0 0.5 -0.206
6.25 0.5 -0.20625
6.5 0.5 -0.2065
6.75 0.5 -0.20675
7.0 0.5 -0.207
7.25 0.5 -0.20725
7.5 0.5 -0.2075
7.75 0.5 -0.20775
8.0 0.5 -0.208
8.25 0.5 -0.20825
8.5 0.5 -0.2085
8.75 0.5 -0.20875
9.0 0.5 -0.209
9.25 0.5 -0.20925
9.5 0.5 -0.2095
9.75 0.5 -0.20975
10.0 0.5 -0.21
10.25 0.5 -0.21025
10.5 0.5 -0.2105
10.75 0.5 -0.21075
11.0 0.5 -0.211
11.25 0.5 -0.21125
11.5 0.5 -0.2115
11.75 0.5 -0.21175
12.0 0.5 -0.212
12.25 0.5 -0.21225
12.5 0.5 -0.2125
12.75 0.5 -0.21275
13.0 0.5 -0.213
13.25 0.5 -0.21325
13.5 0.5 -0.2135
13.75 0.5 -0.21375
14.0 0.5 -0.214
14.25 0.5 -0.21425
14.5 0.5 -0.2145
14.75 0.5 -0.21475
15.0 0.5 -0.215
15.25 0.5 -0.21525
15.5 0.5 -0.2155
15.75 0.5 -0.21575
16.0 0.5 -0.216
0.0 0.75 -0.2
0.25 0.75 -0.20025
0.5 0.75 -0.2005
0.75 0.75 -0.20075
1.0 0.75 -0.201
1.25 0.75 -0.20125
1.5 0.75 -0.2015
1.75 0.75 -0.20175
2.0 0.75 -0.202
2.25 0.75 -0.20225
2.5 0.75 -0.2025
2.75 0.75 -0.20275
3.0 0.75 -0.203
3.25 0.75 -0.20325
3.5 0.75 -0.2035
3.75 0.75 -0.20375
4.0 0.75 -0.204
4.25 0.75 -0.20425
4.5 0.75 -0.2045
4.75 0.75 -0.20475
5.0 0.75 -0.205
5.25 0.75 -0.20525
5.5 0.75 -0.2055
5.75 0.75 -0.20575
6.0 0.75 -0.206
6.25 0.75 -0.20625
6.5 0.75 -0.2065
6.75 0.75 -0.20675
7.0 0.75 -0.207
7.25 0.75 -0.20725
7.5 0.75 -0.2075
7.75 0.75 -0.20775
8.0 0.75 -0.208
8.25 0.75 -0.20825
8.5 0.75 -0.2085
8.75 0.75 -0.20875
9.0 0.75 -0.209
9.25 0.75 -0.20925
9.5 0.75 -0.2095
9.75 0.75 -0.20975
10.0 0.75 -0.21
10.25 0.75 -0.21025
10.5 0.75 -0.2105
10.75 0.75 -0.21075
11.0 0.75 -0.211
11.25 0.75 -0.21125
11.5 0.75 -0.2115
11.75 0.75 -0.21175
12.0 0.75 -0.212
12.25 0.75 -0.21225
12.5 0.75 -0.2125
12.75 0.75 -0.21275
13.0 0.75 -0.213
13.25 0.75 -0.21325
13.5 0.75 -0.2135
13.75 0.75 -0.21375
14.0 0.75 -0.214
14.25 0.75 -0.21425
14.5 0.75 -0.2145
14.75 0.75 -0.21475
15.0 0.75 -0.215
15.25 0.75 -0.21525
15.5 0.75 -0.2155
15.75 0.75 -0.21575
16.0 0.75 -0.216
0.0 1.0 -0.2
0.25 1.0 -0.20025
0.5 1.0 -0.2005
0.75 1.0 -0.20075
1.0 1.0 -0.201
1.25 1.0 -0.20125
1.5 1.0 -0.2015
1.75 1.0 -0.20175
2.0 1.0 -0.202
2.25 1.0 -0.20225
2.5 1.0 -0.2025
2.75 1.0 -0.20275
3.0 1.0 -0.203
3.25 1.0 -0.20325
3.5 1.0 -0.2035
3.75 1.0 -0.20375
4.0 1.0 -0.204
4.25 1.0 -0.20425
4.5 1.0 -0.2045
4.75 1.0 -0.20475
5.0 1.0 -0.205
5.25 1.0 -0.20525
5.5 1.0 -0.2055
5.75 1.0 -0.20575
6.0 1.0 -0.206
6.25 1.0 -0.20625
6.5 1.0 -0.2065
6.75 1.0 -0.20675
7.0 1.0 -0.207
7.25 1.0 -0.20725
7.5 1.0 -0.2075
7.75 1.0 -0.20775
8.0 1.0 -0.208
8.25 1.0 -0.20825
8.5 1.0 -0.2085
8.75 1.0 -0.20875
9.0 1.0 -0.209
9.25 1.0 -0.20925
9.5 1.0 -0.2095
9.75 1.0 -0.20975
10.0 1.0 -0.21
10.25 1.0 -0.21025
10.5 1.0 -0.2105
10.75 1.0 -0.21075
11.0 1.0 -0.211
11.25 1.0 -0.21125
11.5 1.0 -0.2115
11.75 1.0 -0.21175
12.0 1.0 -0.212
12.25 1.0 -0.21225
12.5 1.0 -0.2125
12.75 1.0 -0.21275
13.0 1.0 -0.213
13.25 1.0 -0.21325
13.5 1.0 -0.2135
13.75 1.0 -0.21375
14.0 1.0 -0.214
14.25 1.0 -0.21425
14.5 1.0 -0.2145
14.75 1.0 -0.21475
15.0 1.0 -0.215
15.25 1.0 -0.21525
15.5 1.0 -0.2155
15.75 1.0 -0.21575
16.0 1.0 -0.216
6.0 1.25 -0.206
6.25 1.25 -0.20625
6.5 1.25 -0.2065
6.75 1.25 -0.20675
7.0 1.25 -0.207
7.25 1.25 -0.20725
7.5 1.25 -0.2075
7.75 1.25 -0.20775
8.0 1.25 -0.208
8.25 1.25 -0.20825
8.5 1.25 -0.2085
8.75 1.25 -0.20875
9.0 1.25 -0.209
9.25 1.25 -0.20925
9.5 1.25 -0.2095
9.75 1.25 -0.20975
10.0 1.25 -0.21
10.25 1.25 -0.21025
10.5 1.25 -0.2105
10.75 1.25 -0.21075
11.0 1.25 -0.211
11.25 1.25 -0.21125
11.5 1.25 -0.2115
11.75 1.25 -0.21175
12.0 1.25 -0.212
12.25 1.25 -0.21225
12.5 1.25 -0.2125
12.75 1.25 -0.21275
13.0 1.25 -0.213
13.25 1.25 -0.21325
13.5 1.25 -0.2135
13.75 1.25 -0.21375
14.0 1.25 -0.214
14.25 1.25 -0.21425
14.5 1.25 -0.2145
14.75 1.25 -0.21475
15.0 1.25 -0.215
15.25 1.25 -0.21525
15.5 1.25 -0.2155
15.75 1.25 -0.21575
16.0 1.25 -0.216
6.0 1.5 -0.206
6.25 1.5 -0.20625
6.5 1.5 -0.2065
6.75 1.5 -0.20675
7.0 1.5 -0.207
7.25 1.5 -0.20725
7.5 1.5 -0.2075
7.75 1.5 -0.20775
8.0 1.5 -0.208
8.25 1.5 -0.20825
8.5 1.5 -0.2085
8.75 1.5 -0.20875
9.0 1.5 -0.209
9.25 1.5 -0.20925
9.5 1.5 -0.2095
9.75 1.5 -0.20975
10.0 1.5 -0.21
10.25 1.5 -0.21025
10.5 1.5 -0.2105
10.75 1.5 -0.21075
11.0 1.5 -0.211
11.25 1.5 -0.21125
11.5 1.5 -0.2115
11.75 1.5 -0.21175
12.0 1.5 -0.212
12.25 1.5 -0.21225
12.5 1.5 -0.2125
12.75 1.5 -0.21275
13.0 1.5 -0.213
13.25 1.5 -0.21325
13.5 1.5 -0.2135
13.75 1.5 -0.21375
14.0 1.5 -0.214
14.25 1.5 -0.21425
14.5 1.5 -0.2145
14.75 1.5 -0.21475
15.0 1.5 -0.215
15.25 1.5 -0.21525
15.5 1.5 -0.2155
15.75 1.5 -0.21575
16.0 1.5 -0.216
6.0 1.75 -0.206
6.25 1.75 -0.20625
6.5 1.75 -0.2065
6.75 1.75 -0.20675
7.0 1.75 -0.207
7.25 1.75 -0.20725
7.5 1.75 -0.2075
7.75 1.75 -0.20775
8.0 1.75 -0.208
8.25 1.75 -0.20825
8.5 1.75 -0.2085
8.75 1.75 -0.20875
9.0 1.75 -0.209
9.25 1.75 -0.20925
9.5 1.75 -0.2095
9.75 1.75 -0.20975
10.0 1.75 -0.21
10.25 1.75 -0.21025
10.5 1.75 -0.2105
10.75 1.75 -0.21075
11.0 1.75 -0.211
11.25 1.75 -0.21125
11.5 1.75 -0.2115
11.75 1.75 -0.21175
12.0 1.75 -0.212
12.25 1.75 -0.21225
12.5 1.75 -0.2125
12.75 1.75 -0.21275
13.0 1.75 -0.213
13.25 1.75 -0.21325
13.5 1.75 -0.2135
13.75 1.75 -0.21375
14.0 1.75 -0.214
14.25 1.75 -0.21425
14.5 1.75 -0.2145
14.75 1.75 -0.21475
15.0 1.75 -0.215
15.25 1.75 -0.21525
15.5 1.75 -0.2155
15.75 1.75 -0.21575
16.0 1.75 -0.216
6.0 2.0 -0.206
6.25 2.0 -0.20625
6.5 2.0 -0.2065
6.75 2.0 -0.20675
7.0 2.0 -0.207
7.25 2.0 -0.20725
7.5 2.0 -0.2075
7.75 2.0 -0.20775
8.0 2.0 -0.208
8.25 2.0 -0.20825
8.5 2.0 -0.2085
8.75 2.0 -0.20875
9.0 2.0 -0.209
9.25 2.0 -0.20925
9.5 2.0 -0.2095
9.75 2.0 -0.20975
10.0 2.0 -0.21
10.25 2.0 -0.21025
10.5 2.0 -0.2105
10.75 2.0 -0.21075
11.0 2.0 -0.211
11.25 2.0 -0.21125
11.5 2.0 -0.2115
11.75 2.0 -0.21175
12.0 2.0 -0.212
12.25 2.0 -0.21225
12.5 2.0 -0.2125
12.75 2.0 -0.21275
13.0 2.0 -0.213
13.25 2.0 -0.21325
13.5 2.0 -0.2135
13.75 2.0 -0.21375
14.0 2.0 -0.214
14.25 2.0 -0.21425
14.5 2.0 -0.2145
14.75 2.0 -0.21475
15.0 2.0 -0.215
15.25 2.0 -0.21525
15.5 2.0 -0.2155
15.75 2.0 -0.21575
16.0 2.0 -0.216
CELLS 832 3328
3 0 66 65
3 0 1 66
3 1 67 66
3 1 2 67
3 2 68 67
3 2 3 68
3 3 69 68
3 3 4 69
3 4 70 69
3 4 5 70
3 5 71 70
3 5 6 71
3 6 72 71
3 6 7 72
3 7 73 72
3 7 8 73
3 8 74 73
3 8 9 74
3 9 75 74
3 9 10 75
3 10 76 75
3 10 11 76
3 11 77 76
3 11 12 77
3 12 78 77
3 12 13 78
3 13 79 78
3 13 14 79
3 14 80 79
3 14 15 80
3 15 81 80
3 15 16 81
3 16 82 81
3 16 17 82
3 17 83 82
3 17 18 83
3 18 84 83
3 18 19 84
3 19 85 84
3 19 20 85
3 20 86 85
3 20 21 86
3 21 87 86
3 21 22 87
3 22 88 87
3 22 23 88
3 23 89 88
3 23 24 89
3 24 90 89
3 24 25 90
3 25 91 90
3 25 26 91
3 26 92 91
3 26 27 92
3 27 93 92
3 27 28 93
3 28 94 93
3 28 29 94
3 29 95 94
3 29 30 95
3 30 96 95
3 30 31 96
3 31 97 96
3 31 32 97
3 32 98 97
3 32 33 98
3 33 99 98
3 33 34 99
3 34 100 99
3 34 35 100
3 35 101 100
3 35 36 101
3 36 102 101
3 36 37 102
3 37 103 102
3 37 38 103
3 38 104 103
3 38 39 104
3 39 105 104
3 39 40 105
3 40 106 105
3 40 41 106
3 41 107 106
3 41 42 107
3 42 108 107
3 42 43 108
3 43 109 108
3 43 44 109
3 44 110 109
3 44 45 110
3 45 111 110
3 45 46 111
3 46 112 111
3 46 47 112
3 47 113 112
3 47 48 113
3 48 114 113
3 48 49 114
3 49 115 114
3 49 50 115
3 50 116 115
3 50 51 116
3 51 117 116
3 51 52 117
3 52 118 117
3 52 53 118
3 53 119 118
3 53 54 119
3 54 120 119
3 54 55 120
3 55 121 120
3 55 56 121
3 56 122 121
3 56 57 122
3 57 123 122
3 57 58 123
3 58 124 123
3 58 59 124
3 59 125 124
3 59 60 125
3 60 126 125
3 60 61 126
3 61 127 126
3 61 62 127
3 62 128 127
3 62 63 128
3 63 129 128
3 63 64 129
3 65 131 130
3 65 66 131
3 66 132 131
3 66 67 132
3 67 133 132
3 67 68 133
3 68 134 133
3 68 69 134
3 69 135 134
3 69 70 135
3 70 136 135
3 70 71 136
3 71 137 136
3 71 72 137
3 72 138 137
3 72 73 138
3 73 139 138
3 73 74 139
3 74 140 139
3 74 75 140
3 75 141 140
3 75 76 141
3 76 142 141
3 76 77 142
3 77 143 142
3 77 78 143
3 78 144 143
3 78 79 144
3 79 145 144
3 79 80 145
3 80 146 145
3 80 81 146
3 81 147 146
3 81 82 147
3 82 148 147
3 82 83 148
3 83 149 148
3 83 84 149
3 84 150 149
3 84 85 150
3 85 151 150
3 85 86 151
3 86 152 151
3 86 87 152
3 87 153 152
3 87 88 153
3 88 154 153
3 88 89 154
3 89 155 154
3 89 90 155
3 90 156 155
3 90 91 156
3 91 157 156
3 91 92 157
3 92 158 157
3 92 93 158
3 93 159 158
3 93 94 159
3 94 160 159
3 94 95 160
3 95 161 160
3 95 96 161
3 96 162 161
3 96 97 162
3 97 163 162
3 97 98 163
3 98 164 163
3 98 99 164
3 99 165 164
3 99 100 165
3 100 166 165
3 100 101 166
3 101 167 166
3 101 102 167
3 102 168 167
3 102 103 168
3 103 169 168
3 103 104 169
3 104 170 169
3 104 105 170
3 105 171 170
3 105 106 171
3 106 172 171
3 106 107 172
3 107 173 172
3 107 108 173
3 108 174 173
3 108 109 174
3 109 175 174
3 109 110 175
3 110 176 175
3 110 111 176
3 111 177 176
3 111 112 177
3 112 178 177
3 112 113 178
3 113 179 178
3 113 114 179
3 114 180 179
3 114 115 180
3 115 181 180
3 115 116 181
3 116 182 181
3 116 117 182
3 117 183 182
3 117 118 183
3 118 184 183
3 118 119 184
3 119 185 184
3 119 120 185
3 120 186 185
3 120 121 186
3 121 187 186
3 121 122 187
3 122 188 187
3 122 123 188
3 123 189 188
3 123 124 189
3 124 190 189
3 124 125 190
3 125 191 190
3 125 126 191
3 126 192 191
3 126 127 192
3 127 193 192
3 127 128 193
3 128 194 193
3 128 129 194
3 130 196 195
3 130 131 196
3 131 197 196
3 131 132 197
3 132 198 197
3 132 133 198
3 133 199 198
3 133 134 199
3 134 200 199
3 134 135 200
3 135 201 200
3 135 136 201
3 136 202 201
3 136 137 202
3 137 203 202
3 137 138 203
3 138 204 203
3 138 139 204
3 139 205 204
3 139 140 205
3 140 206 205
3 140 141 206
3 141 207 206
3 141 142 207
3 142 208 207
3 142 143 208
3 143 209 208
3 143 144 209
3 144 210 209
3 144 145 210
3 145 211 210
3 145 146 211
3 146 212 211
3 146 147 212
3 147 213 212
3 147 148 213
3 148 214 213
3 148 149 214
3 149 215 214
3 149 150 215
3 150 216 215
3 150 151 216
3 151 217 216
3 151 152 217
3 152 218 217
3 152 153 218
3 153 219 218
3 153 154 219
3 154 220 219
3 154 155 220
3 155 221 220
3 155 156 221
3 156 222 221
3 156 157 222
3 157 223 222
3 157 158 223
3 158 224 223
3 158 159 224
3 159 225 224
3 159 160 225
3 160 226 225
3 160 161 226
3 161 227 226
3 161 162 227
3 162 228 227
3 162 163 228
3 163 229 228
3 163 164 229
3 164 230 229
3 164 165 230
3 165 231 230
3 165 166 231
3 166 232 231
3 166 167 232
3 167 233 232
3 167 168 233
3 168 234 233
3 168 169 234
3 169 235 234
3 169 170 235
3 170 236 235
3 170 171 236
3 171 237 236
3 171 172 237
3 172 238 237
3 172 173 238
3 173 239 238
3 173 174 239
3 174 240 239
3 174 175 240
3 175 241 240
3 175 176 241
3 176 242 241
3 176 177 242
3 177 243 242
3 177 178 243
3 178 244 243
3 178 179 244
3 179 245 244
3 179 180 245
3 180 246 245
3 180 181 246
3 181 247 246
3 181 182 247
3 182 248 247
3 182 183 248
3 183 249 248
3 183 184 249
3 184 250 249
3 184 185 250
3 185 251 250
3 185 186 251
3 186 252 251
3 186 187 252
3 187 253 252
3 187 188 253
3 188 254 253
3 188 189 254
3 189 255 254
3 189 190 255
3 190 256 255
3 190 191 256
3 191 257 256
3 191 192 257
3 192 258 257
3 192 193 258
3 193 259 258
3 193 194 259
3 195 261 260
3 195 196 261
3 196 262 261
3 196 197 262
3 197 263 262
3 197 198 263
3 198 264 263
3 198 199 264
3 199 265 264
3 199 200 265
3 200 266 265
3 200 201 266
3 201 267 266
3 201 202 267
3 202 268 267
3 202 203 268
3 203 269 268
3 203 204 269
3 204 270 269
3 204 205 270
3 205 271 270
3 205 206 271
3 206 272 271
3 206 207 272
3 207 273 272
3 207 208 273
3 208 274 273
3 208 209 274
3 209 275 274
3 209 210 275
3 210 276 275
3 210 211 276
3 211 277 276
3 211 212 277
3 212 278 277
3 212 213 278
3 213 279 278
3 213 214 279
3 214 280 279
3 214 215 280
3 215 281 280
3 215 216 281
3 216 282 281
3 216 217 282
3 217 283 282
3 217 218 283
3 218 284 283
3 218 219 284
3 219 285 284
3 219 220 285
3 220 286 285
3 220 221 286
3 221 287 286
3 221 222 287
3 222 288 287
3 222 223 288
3 223 289 288
3 223 224 289
3 224 290 289
3 224 225 290
3 225 291 290
3 225 226 291
3 226 292 291
3 226 227 292
3 227 293 292
3 227 228 293
3 228 294 293
3 228 229 294
3 229 295 294
3 229 230 295
3 230 296 295
3 230 231 296
3 231 297 296
3 231 232 297
3 232 298 297
3 232 233 298
3 233 299 298
3 233 234 299
3 234 300 299
3 234 235 300
3 235 301 300
3 235 236 301
3 236 302 301
3 236 237 302
3 237 303 302
3 237 238 303
3 238 304 303
3 238 239 304
3 239 305 304
3 239 240 305
3 240 306 305
3 240 241 306
3 241 307 306
3 241 242 307
3 242 308 307
3 242 243 308
3 243 309 308
3 243 244 309
3 244 310 309
3 244 245 310
3 245 311 310
3 245 246 311
3 246 312 311
3 246 247 312
3 247 313 312
3 247 248 313
3 248 314 313
3 248 249 314
3 249 315 314
3 249 250 315
3 250 316 315
3 250 251 316
3 251 317 316
3 251 252 317
3 252 318 317
3 252 253 318
3 253 319 318
3 253 254 319
3 254 320 319
3 254 255 320
3 255 321 320
3 255 256 321
3 256 322 321
3 256 257 322
3 257 323 322
3 257 258 323
3 258 324 323
3 258 259 324
3 284 326 325
3 284 285 326
3 285 327 326
3 285 286 327
3 286 328 327
3 286 287 328
3 287 329 328
3 287 288 329
3 288 330 329
3 288 289 330
3 289 331 330
3 289 290 331
3 290 332 331
3 290 291 332
3 291 333 332
3 291 292 333
3 292 334 333
3 292 293 334
3 293 335 334
3 293 294 335
3 294 336 335
3 294 295 336
3 295 337 336
3 295 296 337
3 296 338 337
3 296 297 338
3 297 339 338
3 297 298 339
3 298 340 339
3 298 299 340
3 299 341 340
3 299 300 341
3 300 342 341
3 300 301 342
3 301 343 342
3 301 302 343
3 302 344 343
3 302 303 344
3 303 345 344
3 303 304 345
3 304 346 345
3 304 305 346
3 305 347 346
3 305 306 347
3 306 348 347
3 306 307 348
3 307 349 348
3 307 308 349
3 308 350 349
3 308 309 350
3 309 351 350
3 309 310 351
3 310 352 351
3 310 311 352
3 311 353 352
3 311 312 353
3 312 354 353
3 312 313 354
3 313 355 354
3 313 314 355
3 314 356 355
3 314 315 356
3 315 357 356
3 315 316 357
3 316 358 357
3 316 317 358
3 317 359 358
3 317 318 359
3 318 360 359
3 318 319 360
3 319 361 360
3 319 320 361
3 320 362 361
3 320 321 362
3 321 363 362
3 321 322 363
3 322 364 363
3 322 323 364
3 323 365 364
3 323 324 365
3 325 367 366
3 325 326 367
3 326 368 367
3 326 327 368
3 327 369 368
3 327 328 369
3 328 370 369
3 328 329 370
3 329 371 370
3 329 330 371
3 330 372 371
3 330 331 372
3 331 373 372
3 331 332 373
3 332 374 373
3 332 333 374
3 333 375 374
3 333 334 375
3 334 376 375
3 334 335 376
3 335 377 376
3 335 336 377
3 336 378 377
3 336 337 378
3 337 379 378
3 337 338 379
3 338 380 379
3 338 339 380
3 339 381 380
3 339 340 381
3 340 382 381
3 340 341 382
3 341 383 382
3 341 342 383
3 342 384 383
3 342 343 384
3 343 385 384
3 343 344 385
3 344 386 385
3 344 345 386
3 345 387 386
3 345 346 387
3 346 388 387
3 346 347 388
3 347 389 388
3 347 348 389
3 348 390 389
3 348 349 390
3 349 391 390
3 349 350 391
3 350 392 391
3 350 351 392
3 351 393 392
3 351 352 393
3 352 394 393
3 352 353 394
3 353 395 394
3 353 354 395
3 354 396 395
3 354 355 396
3 355 397 396
3 355 356 397
3 356 398 397
3 356 357 398
3 357 399 398
3 357 358 399
3 358 400 399
3 358 359 400
3 359 401 400
3 359 360 401
3 360 402 401
3 360 361 402
3 361 403 402
3 361 362 403
3 362 404 403
3 362 363 404
3 363 405 404
3 363 364 405
3 364 406 405
3 364 365 406
3 366 408 407
3 366 367 408
3 367 409 408
3 367 368 409
3 368 410 409
3 368 369 410
3 369 411 410
3 369 370 411
3 370 412 411
3 370 371 412
3 371 413 412
3 371 372 413
3 372 414 413
3 372 373 414
3 373 415 414
3 373 374 415
3 374 416 415
3 374 375 416
3 375 417 416
3 375 376 417
3 376 418 417
3 376 377 418
3 377 419 418
3 377 378 419
3 378 420 419
3 378 379 420
3 379 421 420
3 379 380 421
3 380 422 421
3 380 381 422
3 381 423 422
3 381 382 423
3 382 424 423
3 382 383 424
3 383 425 424
3 383 384 425
3 384 426 425
3 384 385 426
3 385 427 426
3 385 386 427
3 386 428 427
3 386 387 428
3 387 429 428
3 387 388 429
3 388 430 429
3 388 389 430
3 389 431 430
3 389 390 431
3 390 432 431
3 390 391 432
3 391 433 432
3 391 392 433
3 392 434 433
3 392 393 434
3 393 435 434
3 393 394 435
3 394 436 435
3 394 395 436
3 395 437 436
3 395 396 437
3 396 438 437
3 396 397 438
3 397 439 438
3 397 398 439
3 398 440 439
3 398 399 440
3 399 441 440
3 399 400 441
3 400 442 441
3 400 401 442
3 401 443 442
3 401 402 443
3 402 444 443
3 402 403 444
3 403 445 444
3 403 404 445
3 404 446 445
3 404 405 446
3 405 447 446
3 405 406 447
3 407 449 448
3 407 408 449
3 408 450 449
3 408 409 450
3 409 451 450
3 409 410 451
3 410 452 451
3 410 411 452
3 411 453 452
3 411 412 453
3 412 454 453
3 412 413 454
3 413 455 454
3 413 414 455
3 414 456 455
3 414 415 456
3 415 457 456
3 415 416 457
3 416 458 457
3 416 417 458
3 417 459 458
3 417 418 459
3 418 460 459
3 418 419 460
3 419 461 460
3 419 420 461
3 420 462 461
3 420 421 462
3 421 463 462
3 421 422 463
3 422 464 463
3 422 423 464
3 423 465 464
3 423 424 465
3 424 466 465
3 424 425 466
3 425 467 466
3 425 426 467
3 426 468 467
3 426 427 468
3 427 469 468
3 427 428 469
3 428 470 469
3 428 429 470
3 429 471 470
3 429 430 471
3 430 472 471
3 430 431 472
3 431 473 472
3 431 432 473
3 432 474 473
3 432 433 474
3 433 475 474
3 433 434 475
3 434 476 475
3 434 435 476
3 435 477 476
3 435 436 477
3 436 478 477
3 436 437 478
3 437 479 478
3 437 438 479
3 438 480 479
3 438 439 480
3 439 481 480
3 439 440 481
3 440 482 481
3 440 441 482
3 441 483 482
3 441 442 483
3 442 484 483
3 442 443 484
3 443 485 484
3 443 444 485
3 444 486 485
3 444 445 486
3 445 487 486
3 445 446 487
3 446 488 487
3 446 447 488
CELL_TYPES 832
5
5
5
5
5
5
5
5
5
5
5
5
5
5
5
5
5
5
5
5
5
5
5
5
5
5
5
5
5
5
5
5
5
5
5
5
5
5
5
5
5
5
5
5
5
5
5
5
5
5
5
5
5
5
5
5
5
5
5
5
5
5
5
5
5
5
5
5
5
5
5
5
5
5
5
5
5
5
5
5
5
5
5
5
5
5
5
5
5
5
5
5
5
5
5
5
5
5
5
5
5
5
5
5
5
5
5
5
5
5
5
5
5
5
5
5
5
5
5
5
5
5
5
5
5
5
5
5
5
5
5
5
5
5
5
5
5
5
5
5
5
5
5
5
5
5
5
5
5
5
5
5
5
5
5
5
5
5
5
5
5
5
5
5
5
5
5
5
5
5
5
5
5
5
5
5
5
5
5
5
5
5
5
5
5
5
5
5
5
5
5
5
5
5
5
5
5
5
5
5
5
5
5
5
5
5
5
5
5
5
5
5
5
5
5
5
5
5
5
5
5
5
5
5
5
5
5
5
5
5
5
5
5
5
5
5
5
5
5
5
5
5
5
5
5
5
5
5
5
5
5
5
5
5
5
5
5
5
5
5
5
5
5
5
5
5
5
5
5
5
5
5
5
5
5
5
5
5
5
5
5
5
5
5
5
5
5
5
5
5
5
5
5
5
5
5
5
5
5
5
5
5
5
5
5
5
5
5
5
5
5
5
5
5
5
5
5
5
5
5
5
5
5
5
5
5
5
5
5
5
5
5
5
5
5
5
5
5
5
5
5
5
5
5
5
5
5
5
5
5
5
5
5
5
5
5
5
5
5
5
5
5
5
5
5
5
5
5
5
5
5
5
5
5
5
5
5
5
5
5
5
5
5
5
5
5
5
5
5
5
5
5
5
5
5
5
5
5
5
5
5
5
5
5
5
5
5
5
5
5
5
5
5
5
5
5
5
5
5
5
5
5
5
5
5
5
5
5
5
5
5
5
5
5
5
5
5
5
5
5
5
5
5
5
5
5
5
5
5
5
5
5
5
5
5
5
5
5
5
5
5
5
5
5
5
5
5
5
5
5
5
5
5
5
5
5
5
5
5
5
5
5
5
5
5
5
5
5
5
5
5
5
5
5
5
5
5
5
5
5
5
5
5
5
5
5
5
5
5
5
5
5
5
5
5
5
5
5
5
5
5
5
5
5
5
5
5
5
5
5
5
5
5
5
5
5
5
5
5
5
5
5
5
5
5
5
5
5
5
5
5
5
5
5
5
5
5
5
5
5
5
5
5
5
5
5
5
5
5
5
5
5
5
5
5
5
5
5
5
5
5
5
5
5
5
5
5
5
5
5
5
5
5
5
5
5
5
5
5
5
5
5
5
5
5
5
5
5
5
5
5
5
5
5
5
5
5
5
5
5
5
5
5
5
5
5
5
5
5
5
5
5
5
5
5
5
5
5
5
5
5
5
5
5
5
5
5
5
5
5
5
5
5
5
5
5
5
5
5
5
5
5
5
5
5
5
5
5
5
5
5
5
5
5
5
5
5
5
5
5
5
5
5
5
5
5
5
5
5
5
5
5
5
5
5
5
5
5
5
5
5
5
5
5
5
5
5
5
5
5
5
5
5
5
5
5
5
5
5
5
5
5
5
5
5
5
5
5
5
5
5
5
5
5
5
5
5
5
5
5
5
5
5
5
5
5
5
5
5
5
5
5
5
5
5
5
5
5
5
5
5
5
5
5
5
5
5
5
5
5
5
5
5
5
5
5
5
5
5
5
5
5
5
5
5
5
5
5
5
5
5
5
5
5
5
5
5
5
5
5
5
5
5
5
5
5
5
5
5
5
5
5
5
5
5
5
5
5
5
5
5
5
5
5
5
5
5
5
5
5
5
5
CELL_DATA 832
SCALARS Manning double
LOOKUP_TABLE default
0.014
0.014
0.014
0.014
0.014
0.014
0.014
0.014
0.014
0.014
0.014
0.014
0.014
0.014
0.014
0.014
0.014
0.014
0.014
0.014
0.014
0.014
0.014
0.014
0.014
0.014
0.014
0.014
0.014
0.014
0.014
0.014
0.014
0.014
0.014
0.014
0.014
0.014
0.014
0.014
0.014
0.014
0.014
0.014
0.014
0.014
0.014
0.014
0.017
0.017
0.017
0.017
0.017
0.017
0.017
0.017
0.017
0.017
0.017
0.017
0.017
0.017
0.017
0.017
0.017
0.017
0.017
0.017
0.017
0.017
0.017
0.017
0.017
0.017
0.017
0.017
0.017
0.017
0.017
0.017
0.017
0.017
0.017
0.017
0.017
0.017
0.017
0.017
0.025
0.025
0.025
0.025
0.025
0.025
0.025
0.025
0.025
0.025
0.025
0.025
0.025
0.025
0.025
0.025
0.025
0.025
0.025
0.025
0.025
0.025
0.025
0.025
0.025
0.025
0.025
0.025
0.025
0.025
0.025
0.025
0.025
0.025
0.025
0.025
0.025
0.025
0.025
0.025
0.014
0.014
0.014
0.014
0.014
0.014
0.014
0.014
0.014
0.014
0.014
0.014
0.014
0.014
0.014
0.014
0.014
0.014
0.014
0.014
0.014
0.014
0.014
0.014
0.014
0.014
0.014
0.014
0.014
0.014
0.014
0.014
0.014
0.014
0.014
0.014
0.014
0.014
0.014
0.014
0.014
0.014
0.014
0.014
0.014
0.014
0.014
0.014
0.017
0.017
0.017
0.017
0.017
0.017
0.017
0.017
0.017
0.017
0.017
0.017
0.017
0.017
0.017
0.017
0.017
0.017
0.017
0.017
0.017
0.017
0.017
0.017
0.017
0.017
0.017
0.017
0.017
0.017
0.017
0.017
0.017
0.017
0.017
0.017
0.017
0.017
0.017
0.017
0.025
0.025
0.025
0.025
0.025
0.025
0.025
0.025
0.025
0.025
0.025
0.025
0.025
0.025
0.025
0.025
0.025
0.025
0.025
0.025
0.025
0.025
0.025
0.025
0.025
0.025
0.025
0.025
0.025
0.025
0.025
0.025
0.025
0.025
0.025
0.025
0.025
0.025
0.025
0.025
0.014
0.014
0.014
0.014
0.014
0.014
0.014
0.014
0.014
0.014
0.014
0.014
0.014
0.014
0.014
0.014
0.014
0.014
0.014
0.014
0.014
0.014
0.014
0.014
0.014
0.014
0.014
0.014
0.014
0.014
0.014
0.014
0.014
0.014
0.014
0.014
0.014
0.014
0.014
0.014
0.014
0.014
0.014
0.014
0.014
0.014
0.014
0.014
0.017
0.017
0.017
0.017
0.017
0.017
0.017
0.017
0.017
0.017
0.017
0.017
0.017
0.017
0.017
0.017
0.017
0.017
0.017
0.017
0.017
0.017
0.017
0.017
0.017
0.017
0.017
0.017
0.017
0.017
0.017
0.017
0.017
0.017
0.017
0.017
0.017
0.017
0.017
0.017
0.025
0.025
0.025
0.025
0.025
0.025
0.025
0.025
0.025
0.025
0.025
0.025
0.025
0.025
0.025
0.025
0.025
0.025
0.025
0.025
0.025
0.025
0.025
0.025
0.025
0.025
0.025
0.025
0.025
0.025
0.025
0.025
0.025
0.025
0.025
0.025
0.025
0.025
0.025
0.025
0.014
0.014
0.014
0.014
0.014
0.014
0.014
0.014
0.014
0.014
0.014
0.014
0.014
0.014
0.014
0.014
0.014
0.014
0.014
0.014
0.014
0.014
0.014
0.014
0.014
0.014
0.014
0.014
0.014
0.014
0.014
0.014
0.014
0.014
0.014
0.014
0.014
0.014
0.014
0.014
0.014
0.014
0.014
0.014
0.014
0.014
0.014
0.014
0.017
0.017
0.017
0.017
0.017
0.017
0.017
0.017
0.017
0.017
0.017
0.017
0.017
0.017
0.017
0.017
0.017
0.017
0.017
0.017
0.017
0.017
0.017
0.017
0.017
0.017
0.017
0.017
0.017
0.017
0.017
0.017
0.017
0.017
0.017
0.017
0.017
0.017
0.017
0.017
0.025
0.025
0.025
0.025
0.025
0.025
0.025
0.025
0.025
0.025
0.025
0.025
0.025
0.025
0.025
0.025
0.025
0.025
0.025
0.025
0.025
0.025
0.025
0.025
0.025
0.025
0.025
0.025
0.025
0.025
0.025
0.025
0.025
0.025
0.025
0.025
0.025
0.025
0.025
0.025
0.035
0.035
0.035
0.035
0.035
0.035
0.035
0.035
0.035
0.035
0.035
0.035
0.035
0.035
0.035
0.035
0.035
0.035
0.035
0.035
0.035
0.035
0.035
0.035
0.035
0.035
0.035
0.035
0.035
0.035
0.035
0.035
0.035
0.035
0.035
0.035
0.035
0.035
0.035
0.035
0.028
0.028
0.028
0.028
0.028
0.028
0.028
0.028
0.028
0.028
0.028
0.028
0.028
0.028
0.028
0.028
0.028
0.028
0.028
0.028
0.028
0.028
0.028
0.028
0.028
0.028
0.028
0.028
0.028
0.028
0.028
0.028
0.028
0.028
0.028
0.028
0.028
0.028
0.028
0.028
0.035
0.035
0.035
0.035
0.035
0.035
0.035
0.035
0.035
0.035
0.035
0.035
0.035
0.035
0.035
0.035
0.035
0.035
0.035
0.035
0.035
0.035
0.035
0.035
0.035
0.035
0.035
0.035
0.035
0.035
0.035
0.035
0.035
0.035
0.035
0.035
0.035
0.035
0.035
0.035
0.028
0.028
0.028
0.028
0.028
0.028
0.028
0.028
0.028
0.028
0.028
0.028
0.028
0.028
0.028
0.028
0.028
0.028
0.028
0.028
0.028
0.028
0.028
0.028
0.028
0.028
0.028
0.028
0.028
0.028
0.028
0.028
0.028
0.028
0.028
0.028
0.028
0.028
0.028
0.028
0.035
0.035
0.035
0.035
0.035
0.035
0.035
0.035
0.035
0.035
0.035
0.035
0.035
0.035
0.035
0.035
0.035
0.035
0.035
0.035
0.035
0.035
0.035
0.035
0.035
0.035
0.035
0.035
0.035
0.035
0.035
0.035
0.035
0.035
0.035
0.035
0.035
0.035
0.035
0.035
0.028
0.028
0.028
0.028
0.028
0.028
0.028
0.028
0.028
0.028
0.028
0.028
0.028
0.028
0.028
0.028
0.028
0.028
0.028
0.028
0.028
0.028
0.028
0.028
0.028
0.028
0.028
0.028
0.028
0.028
0.028
0.028
0.028
0.028
0.028
0.028
0.028
0.028
0.028
0.028
0.035
0.035
0.035
0.035
0.035
0.035
0.035
0.035
0.035
0.035
0.035
0.035
0.035
0.035
0.035
0.035
0.035
0.035
0.035
0.035
0.035
0.035
0.035
0.035
0.035
0.035
0.035
0.035
0.035
0.035
0.035
0.035
0.035
0.035
0.035
0.035
0.035
0.035
0.035
0.035
0.028
0.028
0.028
0.028
0.028
0.028
0.028
0.028
0.028
0.028
0.028
0.028
0.028
0.028
0.028
0.028
0.028
0.028
0.028
0.028
0.028
0.028
0.028
0.028
0.028
0.028
0.028
0.028
0.028
0.028
0.028
0.028
0.028
0.028
0.028
0.028
0.028
0.028
0.028
0.028
